file 7057505 1592500915                                         
version 2
run Aufgabe-1-4-0-20200618-19:21:47-25424
attr configname Aufgabe-1-4
attr datetime 20200618-19:21:47
attr experiment Aufgabe-1-4
attr inifile omnetpp.ini
attr iterationvars ""
attr iterationvarsf ""
attr measurement ""
attr network Net2
attr processid 25424
attr repetition 0
attr replication #0
attr resultdir results
attr runnumber 0
attr seedset 0

vector 0 Net2.node[0].line$o.channel busy:vector ETV
attr interpolationmode sample-hold
attr source channelBusy
vector 1 Net2.node[1].line$o.channel busy:vector ETV
attr interpolationmode sample-hold
attr source channelBusy
vector 2 Net2.node[0].app Send-counter-vector ETV
vector 3 Net2.node[1].app Send-counter-vector ETV
vector 4 Net2.node[0].buffer Time-in-buffer ETV
vector 5 Net2.node[0].buffer Pkgs-saved ETV
vector 6 Net2.node[1].buffer Time-in-buffer ETV
vector 7 Net2.node[1].buffer Pkgs-saved ETV
vector 8 Net2.node[0].app Receive-counter-vector ETV
vector 9 Net2.node[1].app Receive-counter-vector ETV
7	1008 852228 4 126102 0 0.083009897338 32768 0 3 3195 3465
5	853236 852219 3 126190 0 0.08305175452 32768 0 3 3215 3521
1	1705455 854273 0 135633 0 0.089203331149 32768 0 1 16384 16384
0	2559728 854521 0 137078 0 0.090185755737 32768 0 1 16384 16384
0	3414249 83601 137084 149991 0.090187419737 0.098799092455 3110 0 1 1555 1555
1	3497850 92766 135637 149997 0.089203587149 0.098802000341 3450 0 1 1725 1725
2	3590616 529703 1 149990 0 0.098799092455 17939 1 17939 160912830 1924463809190
3	4120319 534854 2 149996 0 0.098802000341 18109 1 18109 163976995 1979694260635
4	4655173 500085 3 149991 0 0.098799092455 17939 0 5.765587e-006 0.003214611026 5.9288580422634e-009
5	5155258 165853 126200 149992 0.083059810404 0.098801323145 6168 0 2 568 606
6	5321111 505093 4 149997 0 0.098802000341 18109 0 6.357455e-006 0.003244326569 6.0600916846401e-009
7	5826204 166708 126103 149997 0.083010823277 0.098802000341 6199 0 3 584 646
8	5992912 534835 6 149993 0.000005256 0.098801323145 18108 1 18108 163958886 1979366324754
9	6527747 529702 10 149995 0.000008072 0.098801963076 17938 1 17938 160894891 1924142001469
0	7057449 27 149997 149997 0.098799220455 0.098799220455 1 0 0 0 0
1	7057476 27 149997 149997 0.098806096341 0.098806096341 1 0 0 0 0

