file 7148011 1591631794                                         
version 2
run Aufgabe-1-4-0-20200608-17:55:36-16372
attr configname Aufgabe-1-4
attr datetime 20200608-17:55:36
attr experiment Aufgabe-1-4
attr inifile omnetpp.ini
attr iterationvars ""
attr iterationvarsf ""
attr measurement ""
attr network Net2
attr processid 16372
attr repetition 0
attr replication #0
attr resultdir results
attr runnumber 0
attr seedset 0

vector 0 Net2.node[0].line$o.channel busy:vector ETV
attr interpolationmode sample-hold
attr source channelBusy
vector 1 Net2.node[1].line$o.channel busy:vector ETV
attr interpolationmode sample-hold
attr source channelBusy
vector 2 Net2.node[0].app Send-counter-vector ETV
vector 3 Net2.node[1].app Send-counter-vector ETV
vector 4 Net2.node[0].buffer Time-in-buffer ETV
vector 5 Net2.node[0].buffer Pkgs-saved ETV
vector 6 Net2.node[1].buffer Time-in-buffer ETV
vector 7 Net2.node[1].buffer Pkgs-saved ETV
vector 8 Net2.node[0].app Receive-counter-vector ETV
vector 9 Net2.node[1].app Receive-counter-vector ETV
7	1008 852228 4 126102 0 0.083009897338 32768 0 3 3195 3465
5	853236 852219 3 126190 0 0.08305175452 32768 0 3 3215 3521
1	1705455 854273 0 135633 0 0.089203331149 32768 0 1 16384 16384
0	2559728 854521 0 137078 0 0.090185755737 32768 0 1 16384 16384
0	3414249 95323 137084 151856 0.090187419737 0.099998139614 3546 0 1 1773 1773
1	3509572 104998 135637 151852 0.089203587149 0.099995960057 3904 0 1 1952 1952
2	3614570 536442 1 151855 0 0.099998139614 18157 1 18157 164847403 1995477813315
3	4151012 541876 2 151851 0 0.099995960057 18336 1 18336 168113616 2055076879856
4	4692888 506421 3 151856 0 0.099998139614 18157 0 5.765587e-006 0.003256149217 5.991863194883e-009
5	5199309 178962 126200 151856 0.083059810404 0.099998139614 6655 0 2 623 661
6	5378271 511656 4 151852 0 0.099995960057 18336 0 6.357455e-006 0.003291377428 6.1405351645651e-009
7	5889927 179734 126103 151857 0.083010823277 0.099999071805 6683 0 3 630 692
8	6069661 541859 6 151854 0.000005256 0.099997343148 18335 1 18335 168095280 2054740670960
9	6611520 536435 10 151858 0.000008072 0.099999071805 18156 1 18156 164829246 1995148136666
0	7147955 27 151858 151858 0.099999611614 0.099999611614 1 0 0 0 0
1	7147982 27 151858 151858 0.099998200057 0.099998200057 1 0 0 0 0

