file 5238600 1591630998                                         
version 2
run General-0-20200608-17:43:04-10988
attr configname General
attr datetime 20200608-17:43:04
attr experiment General
attr inifile omnetpp.ini
attr iterationvars ""
attr iterationvarsf ""
attr measurement ""
attr network Net2
attr processid 10988
attr repetition 0
attr replication #0
attr resultdir results
attr runnumber 0
attr seedset 0

vector 0 Net2.node[0].app Send-counter-vector ETV
vector 1 Net2.node[1].app Send-counter-vector ETV
vector 2 Net2.node[0].buffer Time-in-buffer ETV
vector 3 Net2.node[0].buffer Pkgs-saved ETV
vector 4 Net2.node[1].buffer Time-in-buffer ETV
vector 5 Net2.node[1].buffer Pkgs-saved ETV
vector 6 Net2.node[0].app Receive-counter-vector ETV
vector 7 Net2.node[1].app Receive-counter-vector ETV
5	766 852228 4 126102 0 0.083009897338 32768 0 3 3195 3465
3	852994 852219 3 126190 0 0.08305175452 32768 0 3 3215 3521
0	1705213 536442 1 151855 0 0.099998139614 18157 1 18157 164847403 1995477813315
1	2241655 541876 2 151851 0 0.099995960057 18336 1 18336 168113616 2055076879856
2	2783531 506421 3 151856 0 0.099998139614 18157 0 5.765587e-006 0.003256149217 5.991863194883e-009
3	3289952 178962 126200 151856 0.083059810404 0.099998139614 6655 0 2 623 661
4	3468914 511656 4 151852 0 0.099995960057 18336 0 6.357455e-006 0.003291377428 6.1405351645651e-009
5	3980570 179734 126103 151857 0.083010823277 0.099999071805 6683 0 3 630 692
6	4160304 541859 6 151854 0.000005256 0.099997343148 18335 1 18335 168095280 2054740670960
7	4702163 536435 10 151858 0.000008072 0.099999071805 18156 1 18156 164829246 1995148136666

