file 6135929 1592841382                                         
version 2
run General-0-20200622-17:56:11-22612
attr configname General
attr datetime 20200622-17:56:11
attr experiment General
attr inifile omnetpp.ini
attr iterationvars ""
attr iterationvarsf ""
attr measurement ""
attr network NetXbar
attr processid 22612
attr repetition 0
attr replication #0
attr resultdir results
attr runnumber 0
attr seedset 0

vector 0 NetXbar.node[0].app Send-counter-vector ETV
vector 1 NetXbar.node[1].app Send-counter-vector ETV
vector 2 NetXbar.node[2].app Send-counter-vector ETV
vector 3 NetXbar.node[3].app Send-counter-vector ETV
vector 4 NetXbar.node[0].buffer Time-in-buffer ETV
vector 5 NetXbar.node[0].buffer Pkgs-saved ETV
vector 6 NetXbar.node[1].buffer Time-in-buffer ETV
vector 7 NetXbar.node[1].buffer Pkgs-saved ETV
vector 8 NetXbar.node[2].buffer Time-in-buffer ETV
vector 9 NetXbar.node[2].buffer Pkgs-saved ETV
vector 10 NetXbar.node[3].buffer Time-in-buffer ETV
vector 11 NetXbar.node[3].buffer Pkgs-saved ETV
vector 12 NetXbar.xbar.inport[1] Qlength ETV
vector 13 NetXbar.xbar.outport[0].arbiter Service-time ETV
vector 14 NetXbar.xbar.outport[0].arbiter Outstanding-requests ETV
vector 15 NetXbar.xbar.inport[1] Qtime ETV
vector 16 NetXbar.xbar.outport[0].outbuf Qlength ETV
vector 17 NetXbar.node[0].app Receive-counter-vector ETV
vector 18 NetXbar.node[0].app End-to-End-Delay ETV
vector 19 NetXbar.node[0].app Throughput ETV
vector 20 NetXbar.xbar.inport[3] Qlength ETV
vector 21 NetXbar.xbar.inport[3] Qtime ETV
vector 22 NetXbar.xbar.inport[2] Qlength ETV
vector 23 NetXbar.xbar.inport[2] Qtime ETV
vector 24 NetXbar.xbar.inport[0] Qlength ETV
14	1643 775531 10 32833 0.000000256 0.000005376 32768 0 4 131041 524145
14	777174 786432 32834 65601 0.000005376 0.000005376 32768 4 4 131072 524288
14	1563606 786432 65602 98369 0.000005376 0.000005376 32768 4 4 131072 524288
14	2350038 817570 98370 131137 0.000005376 0.000005376 32768 4 4 131072 524288
14	3167608 819200 131138 163905 0.000005376 0.000005376 32768 4 4 131072 524288
14	3986808 819200 163906 196673 0.000005376 0.000005376 32768 4 4 131072 524288
14	4806008 819200 196674 229441 0.000005376 0.000005376 32768 4 4 131072 524288
0	5625208 55 1 54 0 0.000003506914 3 1 3 6 14
1	5625263 78 2 62 0 0.000004358141 4 1 4 10 30
2	5625341 78 3 66 0 0.000004621908 4 1 4 10 30
3	5625419 78 4 64 0 0.000004613551 4 1 4 10 30
4	5625497 64 5 55 0 0.000003506914 3 0 1.356811e-006 1.356811e-006 1.840936089721e-012
5	5625561 115 5 60 0 0.000004224 6 0 1 1 1
6	5625676 99 6 69 0 0.000004737946 4 0 3.79805e-007 4.35828e-007 1.47390414554e-013
7	5625775 124 6 69 0 0.000004737946 6 0 1 2 2
8	5625899 102 7 71 0 0.000005312 4 0 1.463689e-006 3.290126e-006 3.90989241621e-012
9	5626001 136 7 71 0 0.000005312 7 0 1 3 3
10	5626137 89 8 65 0 0.000004613551 4 0 2.3618e-008 2.3618e-008 5.57809924e-016
11	5626226 103 8 65 0 0.000004613551 5 0 1 1 1
12	5626329 110 9 68 0.000000256 0.000004737946 5 0 2 4 6
13	5626439 101 10 73 0.000000256 0.000005376 4 0 2.432e-006 2.688e-006 5.98016e-012
14	5626540 508750 229442 249791 0.000005376 0.000005376 20350 4 4 81400 325600
15	6135290 21 11 11 0.000000256 0.000000256 1 0 0 0 0
16	6135311 63 15 75 0.000000512 0.000005376 3 0 0 0 0
17	6135374 42 17 61 0.000000768 0.000004224 2 1 2 3 5
18	6135416 59 17 61 0.000000768 0.000004224 2 7.68e-007 4.224e-006 4.992e-006 1.8432e-011
19	6135475 70 17 61 0.000000768 0.000004224 2 333333333.33333 393939393.93939 727272727.27273 2.6629935720845e+017
20	6135545 129 20 76 0.000001408 0.000005376 6 0 2 5 7
21	6135674 51 23 76 0.000001408 0.000005376 2 0 2.432e-006 2.432e-006 5.914624e-012
22	6135725 103 30 74 0.00000256 0.000005376 5 0 2 6 10
23	6135828 59 39 74 0.000002816 0.000005376 2 2.56e-007 1.216e-006 1.472e-006 1.544192e-012
24	6135887 40 43 46 0.000003072 0.0000032 2 1 2 3 5

